 Gaussian 16, Revision A.03,
 Gaussian 16:  ES64L-G16RevA.03 25-Dec-2016

 ----------------------------------------------------------------------
 #p opt b3lyp/6-31g(d) scrf=(solvent=water,pcm) empiricaldispersion=gd3
 ----------------------------------------------------------------------

 -------------------
 Title Card Required
 -------------------
 Symbolic Z-matrix:
 Charge =  0 Multiplicity = 1

 SCF Done:  E(RB3LYP) =  -1331.92460844     A.U. after   13 cycles
 SCF Done:  E(RB3LYP) =  -1331.99415573     A.U. after   10 cycles
 SCF Done:  E(RB3LYP) =  -1332.03095915     A.U. after   11 cycles
 SCF Done:  E(RB3LYP) =  -1332.06832150     A.U. after   11 cycles
 SCF Done:  E(RB3LYP) =  -1332.10270062     A.U. after   11 cycles
 SCF Done:  E(RB3LYP) =  -1332.11097782     A.U. after   10 cycles
 SCF Done:  E(RB3LYP) =  -1332.12046108     A.U. after   11 cycles
 SCF Done:  E(RB3LYP) =  -1332.12870719     A.U. after   13 cycles
 SCF Done:  E(RB3LYP) =  -1332.13201041     A.U. after   10 cycles
 SCF Done:  E(RB3LYP) =  -1332.13302534     A.U. after   10 cycles
 SCF Done:  E(RB3LYP) =  -1332.13321622     A.U. after    7 cycles
 SCF Done:  E(RB3LYP) =  -1332.13321655     A.U. after    6 cycles
 SCF Done:  E(RB3LYP) =  -1332.13321683     A.U. after    6 cycles
 SCF Done:  E(RB3LYP) =  -1332.13321714     A.U. after    6 cycles
 SCF Done:  E(RB3LYP) =  -1332.13321763     A.U. after    7 cycles
 SCF Done:  E(RB3LYP) =  -1332.13321850     A.U. after    7 cycles
 SCF Done:  E(RB3LYP) =  -1332.13321908     A.U. after    7 cycles
 SCF Done:  E(RB3LYP) =  -1332.13321962     A.U. after    7 cycles
 SCF Done:  E(RB3LYP) =  -1332.13321973     A.U. after    6 cycles
 SCF Done:  E(RB3LYP) =  -1332.13321973     A.U. after    5 cycles
 Optimization completed.
    -- Stationary point found.

                         Standard orientation:
 ---------------------------------------------------------------------
 Center     Atomic      Atomic             Coordinates (Angstroms)
 Number     Number       Type             X           Y           Z
 ---------------------------------------------------------------------
      1          6           0       -2.011663   -0.604014   -0.816291
      2          6           0       -1.124265   -1.593596   -0.441305
      3          6           0        0.237085   -1.295581   -0.166830
      4          6           0        0.696450    0.059174   -0.250725
      5          6           0       -0.245259    1.054410   -0.638595
      6          6           0       -1.554204    0.736649   -0.925136
      7          1           0        0.790810   -3.338621    0.297712
      8          1           0       -1.461955   -2.622640   -0.349823
      9          6           0        1.150242   -2.315188    0.211004
     10          6           0        2.070796    0.358421    0.034028
     11          1           0        0.072976    2.086742   -0.736126
     12          1           0       -2.243204    1.513901   -1.242640
     13          6           0        2.940263   -0.674982    0.346185
     14          6           0        2.468063   -2.020838    0.466176
     15          6           0        3.467362   -3.058160    0.912742
     16          6           0        4.433023   -0.474068    0.550529
     17          6           0        4.775030   -3.004258    0.089178
     18          6           0        5.202562   -1.552212   -0.247702
     19          1           0        3.713049   -2.864501    1.967431
     20          1           0        3.029271   -4.061436    0.876733
     21          1           0        5.562874   -3.519150    0.650296
     22          1           0        4.635493   -3.567515   -0.840401
     23          1           0        5.027100   -1.354346   -1.312767
     24          1           0        6.277850   -1.417326   -0.080501
     25          6           0        2.554100    1.797288   -0.001600
     26          6           0        3.916456    1.995556    0.680990
     27          6           0        4.892994    0.935921    0.162100
     28          1           0        2.606536    2.135900   -1.046498
     29          1           0        1.816677    2.447027    0.486372
     30          1           0        5.905753    1.112533    0.547140
     31          1           0        4.954856    1.004499   -0.933282
     32          1           0        4.653969   -0.622446    1.620516
     33          6           0        4.443551    3.437613    0.548039
     34          1           0        3.685030    4.124769    0.948804
     35          1           0        5.323478    3.539526    1.198154
     36          1           0        3.769849    1.808563    1.756288
     37          6           0        4.825408    3.881394   -0.870719
     38          1           0        3.975647    3.826140   -1.560524
     39          1           0        5.176444    4.919579   -0.865351
     40          1           0        5.630162    3.262935   -1.283633
     41         16           0       -3.707553   -1.025898   -1.221579
     42          6           0       -4.624037   -0.055821    0.060821
     43          1           0       -4.299880    0.985637   -0.007623
     44          1           0       -4.341501   -0.439275    1.046943
     45          6           0       -6.132004   -0.185757   -0.163906
     46          1           0       -6.395100    0.238041   -1.143352
     47          1           0       -6.399539   -1.250505   -0.198971
     48          6           0       -6.979193    0.499915    0.927805
     49          1           0       -6.687076    0.069387    1.897611
     50          6           0       -8.467542    0.196069    0.702120
     51          1           0       -9.084383    0.641802    1.491268
     52          1           0       -8.805474    0.606463   -0.258520
     53          1           0       -8.658470   -0.883665    0.691683
     54          6           0       -6.742496    2.016499    0.986023
     55          1           0       -5.706072    2.264759    1.238881
     56          1           0       -6.973844    2.480370    0.017978
     57          1           0       -7.386813    2.480613    1.741880
 ---------------------------------------------------------------------

 The electronic state is 1-A.
 Alpha  occ. eigenvalues --  -88.87618 -10.21933 -10.21199 -10.19814 -10.19711
 Alpha  occ. eigenvalues --  -10.19460 -10.19460 -10.19429 -10.19199 -10.19170
 Alpha  occ. eigenvalues --  -10.18903 -10.18897 -10.18793 -10.18540 -10.18386
 Alpha  occ. eigenvalues --  -10.18353 -10.18271 -10.18137 -10.18003 -10.17820
 Alpha  occ. eigenvalues --  -10.17679 -10.17393 -10.17048 -10.17038 -10.16994
 Alpha  occ. eigenvalues --   -7.93683  -5.90195  -5.89838  -5.89167  -0.88062
 Alpha  occ. eigenvalues --   -0.85148  -0.82060  -0.81675  -0.80255  -0.77670
 Alpha  occ. eigenvalues --   -0.76988  -0.75508  -0.73467  -0.72610  -0.71209
 Alpha  occ. eigenvalues --   -0.68143  -0.67909  -0.66804  -0.63781  -0.62896
 Alpha  occ. eigenvalues --   -0.61687  -0.59251  -0.58931  -0.57574  -0.55807
 Alpha  occ. eigenvalues --   -0.54841  -0.53502  -0.51210  -0.48826  -0.48135
 Alpha  occ. eigenvalues --   -0.47209  -0.46955  -0.45767  -0.44546  -0.44267
 Alpha  occ. eigenvalues --   -0.43870  -0.43271  -0.43127  -0.42564  -0.41657
 Alpha  occ. eigenvalues --   -0.41423  -0.41046  -0.40507  -0.40061  -0.38952
 Alpha  occ. eigenvalues --   -0.38404  -0.38156  -0.37797  -0.37401  -0.36881
 Alpha  occ. eigenvalues --   -0.36597  -0.36342  -0.36260  -0.35702  -0.34616
 Alpha  occ. eigenvalues --   -0.33902  -0.33444  -0.32915  -0.32631  -0.32268
 Alpha  occ. eigenvalues --   -0.32013  -0.31708  -0.31352  -0.31020  -0.30233
 Alpha  occ. eigenvalues --   -0.29423  -0.28778  -0.27516  -0.24476  -0.22302
 Alpha  occ. eigenvalues --   -0.20849
 Alpha virt. eigenvalues --   -0.03932  -0.01709   0.03191   0.03931   0.06821
 Alpha virt. eigenvalues --    0.08291   0.08756   0.09494   0.10288   0.10801
 Alpha virt. eigenvalues --    0.11552   0.12113   0.12584   0.12712   0.13020

 Mulliken charges:
               1
     1  C   -0.090132
     2  C   -0.241676
     3  C    0.154936
     4  C    0.058837
     5  C   -0.206846
     6  C   -0.168444
     7  H    0.138530
     8  H    0.152863
     9  C   -0.308851
    10  C    0.044068
    11  H    0.151072
    12  H    0.152639
    13  C    0.050308
    14  C    0.143188
    15  C   -0.359152
    16  C   -0.173505
    17  C   -0.268267
    18  C   -0.271503
    19  H    0.158189
    20  H    0.149809
    21  H    0.140937
    22  H    0.144160
    23  H    0.137702
    24  H    0.140816
    25  C   -0.354370
    26  C   -0.085389
    27  C   -0.275061
    28  H    0.156810
    29  H    0.152538
    30  H    0.134522
    31  H    0.136772
    32  H    0.143506
    33  C   -0.256643
    34  H    0.131274
    35  H    0.132860
    36  H    0.125157
    37  C   -0.460194
    38  H    0.149254
    39  H    0.145026
    40  H    0.150758
    41  S    0.031141
    42  C   -0.416233
    43  H    0.187935
    44  H    0.180213
    45  C   -0.264194
    46  H    0.146328
    47  H    0.148101
    48  C   -0.068518
    49  H    0.130047
    50  C   -0.449261
    51  H    0.145180
    52  H    0.143198
    53  H    0.144541
    54  C   -0.453127
    55  H    0.148612
    56  H    0.143547
    57  H    0.145993
 Sum of Mulliken charges =  -0.00000

 Dipole moment (field-independent basis, Debye):
    X=              2.1734    Y=              1.5479    Z=              2.2718  Tot=              3.5044
 Quadrupole moment (field-independent basis, Debye-Ang):
   XX=           -142.0630   YY=           -152.6772   ZZ=           -164.0000
   XY=             -7.0169   XZ=             -4.6495   YZ=             -3.6176

 Normal termination of Gaussian 16 at Wed Nov  8 22:44:12 2023.
