 Gaussian 16, Revision A.03,
 Gaussian 16:  ES64L-G16RevA.03 25-Dec-2016

 ----------------------------------------------------------------------
 #p opt b3lyp/6-31g(d) scrf=(solvent=water,pcm) empiricaldispersion=gd3
 ----------------------------------------------------------------------

 -------------------
 Title Card Required
 -------------------
 Symbolic Z-matrix:
 Charge =  0 Multiplicity = 1

 SCF Done:  E(RB3LYP) =  -1254.25307577     A.U. after   13 cycles
 SCF Done:  E(RB3LYP) =  -1254.43014473     A.U. after   12 cycles
 SCF Done:  E(RB3LYP) =  -1254.57882176     A.U. after   12 cycles
 SCF Done:  E(RB3LYP) =  -1254.63336195     A.U. after   12 cycles
 SCF Done:  E(RB3LYP) =  -1254.65861870     A.U. after   11 cycles
 SCF Done:  E(RB3LYP) =  -1254.67343963     A.U. after   11 cycles
 SCF Done:  E(RB3LYP) =  -1254.67979282     A.U. after   10 cycles
 SCF Done:  E(RB3LYP) =  -1254.69245836     A.U. after   11 cycles
 SCF Done:  E(RB3LYP) =  -1254.69757301     A.U. after   11 cycles
 SCF Done:  E(RB3LYP) =  -1254.69965609     A.U. after   10 cycles
 SCF Done:  E(RB3LYP) =  -1254.70897879     A.U. after    7 cycles
 SCF Done:  E(RB3LYP) =  -1254.70897945     A.U. after    7 cycles
 SCF Done:  E(RB3LYP) =  -1254.70897984     A.U. after    6 cycles
 SCF Done:  E(RB3LYP) =  -1254.70898049     A.U. after    7 cycles
 SCF Done:  E(RB3LYP) =  -1254.70898111     A.U. after    7 cycles
 SCF Done:  E(RB3LYP) =  -1254.70898166     A.U. after    7 cycles
 SCF Done:  E(RB3LYP) =  -1254.70898185     A.U. after    6 cycles
 SCF Done:  E(RB3LYP) =  -1254.70898193     A.U. after    6 cycles
 SCF Done:  E(RB3LYP) =  -1254.70898195     A.U. after    6 cycles
 SCF Done:  E(RB3LYP) =  -1254.70898196     A.U. after    6 cycles
 Optimization completed.
    -- Stationary point found.

                         Standard orientation:
 ---------------------------------------------------------------------
 Center     Atomic      Atomic             Coordinates (Angstroms)
 Number     Number       Type             X           Y           Z
 ---------------------------------------------------------------------
      1          6           0        0.211736   -0.689526   -0.992141
      2          6           0        0.258892    0.636093   -0.502945
      3          6           0       -0.949232    1.321289   -0.226966
      4          6           0       -2.156933    0.652306   -0.434586
      5          6           0       -2.182941   -0.666676   -0.959499
      6          6           0       -0.999992   -1.344392   -1.232035
      7          6           0        2.564890    0.189450   -0.698233
      8          6           0        1.616399    1.100686   -0.348622
      9          1           0       -1.022794   -2.356577   -1.627214
     10          1           0        1.876905    2.087368    0.019367
     11         16           0        1.833266   -1.327749   -1.249499
     12          6           0        4.057273    0.335011   -0.628545
     13          1           0        4.507384    0.081256   -1.598673
     14          1           0        4.275716    1.393129   -0.447951
     15          6           0        4.706538   -0.535621    0.466818
     16          1           0        4.416412   -1.582091    0.302240
     17          1           0        4.290799   -0.248892    1.443432
     18          6           0        6.242929   -0.448575    0.518958
     19          1           0        6.626383   -0.709427   -0.479689
     20          6           0        6.737623    0.963741    0.866129
     21          1           0        7.832013    0.988661    0.927948
     22          1           0        6.432665    1.704744    0.119374
     23          1           0        6.340036    1.282888    1.838804
     24          6           0        6.796196   -1.471932    1.521638
     25          1           0        6.482315   -2.491331    1.266861
     26          1           0        7.892233   -1.450655    1.544776
     27          1           0        6.436396   -1.253956    2.535899
     28          6           0       -3.540510   -1.259831   -1.243363
     29          1           0       -3.449876   -2.305314   -1.559991
     30          6           0       -4.322834    0.204686    0.704403
     31          6           0       -3.507442    1.255447   -0.081534
     32          6           0       -3.379267    2.564392    0.711544
     33          6           0       -0.914444    2.751070    0.277368
     34          1           0       -3.140625    2.330888    1.759895
     35          1           0       -0.142583    3.313839   -0.262404
     36          6           0       -2.271796    3.451870    0.139328
     37          1           0       -0.607118    2.757656    1.334309
     38          1           0       -2.475621    3.653667   -0.921593
     39          1           0       -2.243946    4.421394    0.650276
     40          1           0       -4.344302    3.085477    0.716529
     41          1           0       -4.043986    1.477412   -1.018973
     42          1           0       -3.977806   -0.717628   -2.094607
     43          6           0       -4.518377   -1.143279   -0.042254
     44          1           0       -5.536255   -1.172082   -0.454743
     45          6           0       -4.371474   -2.343828    0.910042
     46          1           0       -4.474151   -3.271237    0.329676
     47          1           0       -3.350499   -2.346430    1.319437
     48          6           0       -5.391383   -2.355875    2.053771
     49          1           0       -5.266804   -3.243325    2.684869
     50          1           0       -5.290458   -1.474443    2.697102
     51          1           0       -6.416288   -2.364309    1.661451
     52          1           0       -3.780937    0.022879    1.642932
     53          1           0       -5.292564    0.631381    0.986982
 ---------------------------------------------------------------------

 The electronic state is 1-A.
 Alpha  occ. eigenvalues --  -88.89883 -10.22012 -10.21506 -10.19336 -10.19246
 Alpha  occ. eigenvalues --  -10.19168 -10.18893 -10.18803 -10.18621 -10.18613
 Alpha  occ. eigenvalues --  -10.18585 -10.18368 -10.18359 -10.18319 -10.18025
 Alpha  occ. eigenvalues --  -10.18010 -10.17808 -10.17576 -10.17502 -10.17501
 Alpha  occ. eigenvalues --  -10.16948 -10.16932 -10.16926  -7.95983  -5.92411
 Alpha  occ. eigenvalues --   -5.92062  -5.91628  -0.88746  -0.85345  -0.81470
 Alpha  occ. eigenvalues --   -0.81121  -0.79790  -0.76711  -0.75634  -0.74383
 Alpha  occ. eigenvalues --   -0.72481  -0.70505  -0.69962  -0.67786  -0.66410
 Alpha  occ. eigenvalues --   -0.63871  -0.62042  -0.60844  -0.59521  -0.57302
 Alpha  occ. eigenvalues --   -0.55559  -0.54098  -0.53400  -0.52996  -0.49938
 Alpha  occ. eigenvalues --   -0.47963  -0.46843  -0.45889  -0.45137  -0.44086
 Alpha  occ. eigenvalues --   -0.44000  -0.43669  -0.43090  -0.42599  -0.42370
 Alpha  occ. eigenvalues --   -0.41206  -0.40033  -0.39733  -0.39150  -0.38841
 Alpha  occ. eigenvalues --   -0.38195  -0.38014  -0.37683  -0.36980  -0.36464
 Alpha  occ. eigenvalues --   -0.35854  -0.35723  -0.35144  -0.34998  -0.34480
 Alpha  occ. eigenvalues --   -0.33740  -0.33350  -0.32642  -0.32246  -0.31970
 Alpha  occ. eigenvalues --   -0.31686  -0.31571  -0.30772  -0.29566  -0.29335
 Alpha  occ. eigenvalues --   -0.28812  -0.26886  -0.21962  -0.20615
 Alpha virt. eigenvalues --   -0.02072   0.00454   0.02330   0.05291   0.08070
 Alpha virt. eigenvalues --    0.09111   0.09981   0.10439   0.10733   0.12447
 Alpha virt. eigenvalues --    0.12557   0.12806   0.13008   0.13706   0.14065

 Mulliken charges:
               1
     1  C   -0.150139
     2  C    0.075997
     3  C    0.060579
     4  C    0.039167
     5  C    0.143790
     6  C   -0.277514
     7  C   -0.116125
     8  C   -0.182444
     9  H    0.145480
    10  H    0.153351
    11  S    0.168004
    12  C   -0.338740
    13  H    0.158969
    14  H    0.167626
    15  C   -0.253362
    16  H    0.142339
    17  H    0.136858
    18  C   -0.064640
    19  H    0.126011
    20  C   -0.454424
    21  H    0.144167
    22  H    0.148908
    23  H    0.142038
    24  C   -0.450354
    25  H    0.143245
    26  H    0.143152
    27  H    0.141772
    28  C   -0.371458
    29  H    0.144658
    30  C   -0.282066
    31  C   -0.165026
    32  C   -0.272156
    33  C   -0.344845
    34  H    0.134435
    35  H    0.151965
    36  C   -0.271363
    37  H    0.155169
    38  H    0.138753
    39  H    0.136980
    40  H    0.136378
    41  H    0.139067
    42  H    0.153582
    43  C   -0.061907
    44  H    0.122090
    45  C   -0.258198
    46  H    0.130696
    47  H    0.132211
    48  C   -0.454298
    49  H    0.143968
    50  H    0.150203
    51  H    0.143099
    52  H    0.135495
    53  H    0.138859
 Sum of Mulliken charges =  -0.00000

 Dipole moment (field-independent basis, Debye):
    X=             -0.4014    Y=              1.5031    Z=              0.6176  Tot=              1.6738
 Quadrupole moment (field-independent basis, Debye-Ang):
   XX=           -131.7102   YY=           -143.1600   ZZ=           -150.7576
   XY=              1.9243   XZ=              1.6864   YZ=              2.2672

 Normal termination of Gaussian 16 at Wed Nov  8 22:47:12 2023.
