 Gaussian 16, Revision A.03,
 Gaussian 16:  ES64L-G16RevA.03 25-Dec-2016

 ----------------------------------------------------------------------
 #p opt b3lyp/6-31g(d) scrf=(solvent=water,pcm) empiricaldispersion=gd3
 ----------------------------------------------------------------------

 -------------------
 Title Card Required
 -------------------
 Symbolic Z-matrix:
 Charge =  0 Multiplicity = 1

 SCF Done:  E(RB3LYP) =  -933.736887205     A.U. after   12 cycles
 SCF Done:  E(RB3LYP) =  -933.806355579     A.U. after   10 cycles
 SCF Done:  E(RB3LYP) =  -933.841990761     A.U. after   11 cycles
 SCF Done:  E(RB3LYP) =  -933.879874668     A.U. after   11 cycles
 SCF Done:  E(RB3LYP) =  -933.915434446     A.U. after   11 cycles
 SCF Done:  E(RB3LYP) =  -933.924254188     A.U. after   10 cycles
 SCF Done:  E(RB3LYP) =  -933.936748050     A.U. after   11 cycles
 SCF Done:  E(RB3LYP) =  -933.942460189     A.U. after   11 cycles
 SCF Done:  E(RB3LYP) =  -933.941653835     A.U. after   11 cycles
 SCF Done:  E(RB3LYP) =  -933.945204225     A.U. after   10 cycles
 SCF Done:  E(RB3LYP) =  -933.946157704     A.U. after    7 cycles
 SCF Done:  E(RB3LYP) =  -933.946160162     A.U. after    7 cycles
 SCF Done:  E(RB3LYP) =  -933.946160260     A.U. after    6 cycles
 SCF Done:  E(RB3LYP) =  -933.946160510     A.U. after    6 cycles
 SCF Done:  E(RB3LYP) =  -933.946160938     A.U. after    7 cycles
 SCF Done:  E(RB3LYP) =  -933.946161505     A.U. after    7 cycles
 SCF Done:  E(RB3LYP) =  -933.946161949     A.U. after    7 cycles
 SCF Done:  E(RB3LYP) =  -933.946162157     A.U. after    7 cycles
 SCF Done:  E(RB3LYP) =  -933.946162534     A.U. after    7 cycles
 SCF Done:  E(RB3LYP) =  -933.946162570     A.U. after    6 cycles
 Optimization completed.
    -- Stationary point found.

                         Standard orientation:
 ---------------------------------------------------------------------
 Center     Atomic      Atomic             Coordinates (Angstroms)
 Number     Number       Type             X           Y           Z
 ---------------------------------------------------------------------
      1          6           0       -1.961142   -1.192281    0.123883
      2          6           0       -1.394859    0.058564   -0.016033
      3          6           0        0.014002    0.244627   -0.084372
      4          6           0        0.884831   -0.889757   -0.016119
      5          6           0        0.280011   -2.170666    0.131530
      6          6           0       -1.087271   -2.312649    0.200258
      7          1           0       -0.084843    2.398595   -0.301487
      8          1           0       -2.021936    0.943796   -0.075413
      9          6           0        0.579459    1.539429   -0.226806
     10          6           0        2.305808   -0.698247   -0.080386
     11          1           0        0.904114   -3.055317    0.203319
     12          1           0       -1.518017   -3.305119    0.317296
     13          6           0        2.815857    0.587467   -0.167935
     14          6           0        1.942211    1.715533   -0.272031
     15          6           0        2.589127    3.064337   -0.464894
     16          6           0        4.303194    0.898846   -0.132567
     17          6           0        3.710766    3.327171    0.566276
     18          6           0        4.556101    2.059616    0.857833
     19          1           0        3.030383    3.093796   -1.472348
     20          1           0        1.840705    3.863711   -0.432310
     21          1           0        4.346124    4.138673    0.193840
     22          1           0        3.260958    3.686833    1.498697
     23          1           0        4.323061    1.685133    1.862724
     24          1           0        5.626053    2.300249    0.857445
     25          6           0        3.233221   -1.899782   -0.057735
     26          6           0        4.666338   -1.579277   -0.508917
     27          6           0        5.153038   -0.326559    0.223569
     28          1           0        3.264374   -2.324497    0.958445
     29          1           0        2.828654   -2.693259   -0.698487
     30          1           0        6.206706   -0.122552   -0.006566
     31          1           0        5.096592   -0.510085    1.307663
     32          1           0        4.604659    1.240192   -1.136848
     33          6           0        5.595579   -2.776322   -0.289602
     34          1           0        5.674013   -3.016090    0.778884
     35          1           0        5.223686   -3.669349   -0.806499
     36          1           0        6.605301   -2.564942   -0.660974
     37          1           0        4.638683   -1.352898   -1.586086
     38          6           0       -3.456675   -1.436372    0.204061
     39          1           0       -3.736264   -2.141511   -0.593246
     40          1           0       -3.671325   -1.968702    1.142937
     41          6           0       -4.358678   -0.201752    0.113215
     42          1           0       -4.152514    0.328139   -0.825013
     43          1           0       -4.112347    0.496786    0.925488
     44          6           0       -5.846652   -0.565235    0.193845
     45          1           0       -6.111290   -1.209310   -0.659044
     46          1           0       -6.012763   -1.171088    1.096721
     47          6           0       -6.807675    0.637956    0.227350
     48          1           0       -6.516869    1.273196    1.078606
     49          6           0       -8.249468    0.163730    0.461738
     50          1           0       -8.941216    1.012083    0.528299
     51          1           0       -8.585560   -0.476755   -0.364628
     52          1           0       -8.333972   -0.415659    1.389167
     53          6           0       -6.724717    1.488336   -1.049355
     54          1           0       -5.726572    1.914422   -1.196553
     55          1           0       -6.964517    0.881236   -1.932751
     56          1           0       -7.438501    2.320010   -1.012121
 ---------------------------------------------------------------------

 The electronic state is 1-A.
 Alpha  occ. eigenvalues --  -10.19246 -10.19114 -10.19058 -10.18987 -10.18754
 Alpha  occ. eigenvalues --  -10.18628 -10.18501 -10.18449 -10.18367 -10.18360
 Alpha  occ. eigenvalues --  -10.18330 -10.18278 -10.18193 -10.18141 -10.18032
 Alpha  occ. eigenvalues --  -10.17935 -10.17905 -10.17725 -10.17668 -10.17361
 Alpha  occ. eigenvalues --  -10.17354 -10.16994 -10.16777 -10.16754  -0.87480
 Alpha  occ. eigenvalues --   -0.84477  -0.81400  -0.81073  -0.79639  -0.76918
 Alpha  occ. eigenvalues --   -0.75923  -0.74655  -0.72835  -0.71566  -0.67603
 Alpha  occ. eigenvalues --   -0.67578  -0.66980  -0.66370  -0.62917  -0.60663
 Alpha  occ. eigenvalues --   -0.59569  -0.58315  -0.57259  -0.55231  -0.54509
 Alpha  occ. eigenvalues --   -0.54161  -0.50841  -0.48227  -0.47984  -0.46937
 Alpha  occ. eigenvalues --   -0.46497  -0.45406  -0.44294  -0.43945  -0.43529
 Alpha  occ. eigenvalues --   -0.42649  -0.42382  -0.41667  -0.41156  -0.40562
 Alpha  occ. eigenvalues --   -0.40467  -0.40114  -0.39254  -0.38615  -0.38047
 Alpha  occ. eigenvalues --   -0.37724  -0.37236  -0.36673  -0.36242  -0.36165
 Alpha  occ. eigenvalues --   -0.35546  -0.35297  -0.34802  -0.34046  -0.33403
 Alpha  occ. eigenvalues --   -0.33324  -0.32498  -0.31929  -0.31531  -0.31302
 Alpha  occ. eigenvalues --   -0.31000  -0.30367  -0.29906  -0.29274  -0.28810
 Alpha  occ. eigenvalues --   -0.26835  -0.22581  -0.20460
 Alpha virt. eigenvalues --   -0.03074  -0.00489   0.03895   0.08710   0.08818
 Alpha virt. eigenvalues --    0.08998   0.09977   0.11091   0.11303   0.11630
 Alpha virt. eigenvalues --    0.12198   0.12596   0.13121   0.13881   0.14128

 Mulliken charges:
               1
     1  C    0.161708
     2  C   -0.297338
     3  C    0.149578
     4  C    0.059711
     5  C   -0.223122
     6  C   -0.196498
     7  H    0.131892
     8  H    0.138060
     9  C   -0.314098
    10  C    0.040144
    11  H    0.142346
    12  H    0.132428
    13  C    0.046157
    14  C    0.141846
    15  C   -0.358679
    16  C   -0.171905
    17  C   -0.267945
    18  C   -0.270554
    19  H    0.155562
    20  H    0.147511
    21  H    0.139435
    22  H    0.142714
    23  H    0.136429
    24  H    0.139101
    25  C   -0.345602
    26  C   -0.083115
    27  C   -0.266679
    28  H    0.149132
    29  H    0.151430
    30  H    0.133445
    31  H    0.130180
    32  H    0.140935
    33  C   -0.453575
    34  H    0.141815
    35  H    0.143480
    36  H    0.144290
    37  H    0.127307
    38  C   -0.346816
    39  H    0.153066
    40  H    0.152950
    41  C   -0.269983
    42  H    0.144418
    43  H    0.137757
    44  C   -0.249714
    45  H    0.127115
    46  H    0.128471
    47  C   -0.064517
    48  H    0.121661
    49  C   -0.449391
    50  H    0.140950
    51  H    0.139676
    52  H    0.141064
    53  C   -0.452071
    54  H    0.147144
    55  H    0.139442
    56  H    0.141253
 Sum of Mulliken charges =  -0.00000

 Dipole moment (field-independent basis, Debye):
    X=              0.6334    Y=              0.2177    Z=             -0.0259  Tot=              0.6703
 Quadrupole moment (field-independent basis, Debye-Ang):
   XX=           -133.5460   YY=           -138.9313   ZZ=           -149.3650
   XY=              1.9200   XZ=             -1.6803   YZ=             -0.8254

 Normal termination of Gaussian 16 at Wed Nov  8 22:31:30 2023.
