 Gaussian 16, Revision A.03,
 Gaussian 16:  ES64L-G16RevA.03 25-Dec-2016

 ----------------------------------------------------------------------
 #p opt b3lyp/6-31g(d) scrf=(solvent=water,pcm) empiricaldispersion=gd3
 ----------------------------------------------------------------------

 -------------------
 Title Card Required
 -------------------
 Symbolic Z-matrix:
 Charge =  0 Multiplicity = 1

 SCF Done:  E(RB3LYP) =  -815.830301972     A.U. after   13 cycles
 SCF Done:  E(RB3LYP) =  -815.895226722     A.U. after   12 cycles
 SCF Done:  E(RB3LYP) =  -815.949817479     A.U. after   12 cycles
 SCF Done:  E(RB3LYP) =  -815.965639612     A.U. after   11 cycles
 SCF Done:  E(RB3LYP) =  -815.972886647     A.U. after   10 cycles
 SCF Done:  E(RB3LYP) =  -815.978887801     A.U. after   11 cycles
 SCF Done:  E(RB3LYP) =  -815.987187408     A.U. after   13 cycles
 SCF Done:  E(RB3LYP) =  -815.991033452     A.U. after   11 cycles
 SCF Done:  E(RB3LYP) =  -815.994750413     A.U. after   11 cycles
 SCF Done:  E(RB3LYP) =  -815.995871192     A.U. after   13 cycles
 SCF Done:  E(RB3LYP) =  -816.001003336     A.U. after    9 cycles
 SCF Done:  E(RB3LYP) =  -816.001553602     A.U. after    9 cycles
 SCF Done:  E(RB3LYP) =  -816.001948260     A.U. after   10 cycles
 SCF Done:  E(RB3LYP) =  -816.002131119     A.U. after    9 cycles
 SCF Done:  E(RB3LYP) =  -816.002196298     A.U. after    9 cycles
 SCF Done:  E(RB3LYP) =  -816.002237913     A.U. after    9 cycles
 SCF Done:  E(RB3LYP) =  -816.002242213     A.U. after    8 cycles
 SCF Done:  E(RB3LYP) =  -816.002243377     A.U. after    7 cycles
 SCF Done:  E(RB3LYP) =  -816.002243630     A.U. after    7 cycles
 SCF Done:  E(RB3LYP) =  -816.002243669     A.U. after    6 cycles
 Optimization completed.
    -- Stationary point found.

                         Standard orientation:
 ---------------------------------------------------------------------
 Center     Atomic      Atomic             Coordinates (Angstroms)
 Number     Number       Type             X           Y           Z
 ---------------------------------------------------------------------
      1          6           0        1.762683    0.218279   -0.718531
      2          6           0        1.050984    1.374559   -0.471508
      3          6           0       -0.349726    1.347232   -0.243829
      4          6           0       -1.052304    0.099299   -0.285793
      5          6           0       -0.303673   -1.095143   -0.535316
      6          6           0        1.059629   -1.014838   -0.736494
      7          1           0        1.564656    2.333922   -0.441504
      8          1           0        1.621318   -1.930987   -0.913777
      9          6           0       -2.469555    0.071054   -0.063512
     10          6           0       -1.082793    2.533246    0.030241
     11          6           0       -3.148524    1.247599    0.221555
     12          6           0       -2.434844    2.476863    0.262146
     13          6           0       -1.014256   -2.431838   -0.568639
     14          6           0       -3.200070   -1.263103   -0.158820
     15          6           0       -2.286868   -2.413747    0.283039
     16          6           0       -4.633816    1.272366    0.537469
     17          1           0       -5.101103    2.131788    0.039135
     18          6           0       -4.535335   -1.238392    0.594038
     19          6           0       -5.363287   -0.023701    0.166372
     20          1           0       -1.289646   -2.673158   -1.606803
     21          1           0       -0.331484   -3.224514   -0.240530
     22          1           0       -2.820041   -3.367745    0.191863
     23          1           0       -2.025967   -2.285737    1.342824
     24          1           0       -3.432011   -1.432389   -1.224687
     25          1           0       -5.079139   -2.171536    0.401529
     26          1           0       -4.344760   -1.194451    1.676569
     27          1           0       -6.355999   -0.039249    0.631300
     28          1           0       -5.519827   -0.063122   -0.920657
     29          1           0       -4.751569    1.455693    1.616573
     30          1           0       -0.555690    3.484253    0.057004
     31          1           0       -2.984986    3.389809    0.481490
     32          6           0        3.262770    0.233070   -0.907863
     33          1           0        3.538923   -0.437540   -1.733788
     34          1           0        3.583321    1.240084   -1.196833
     35          6           0        4.013937   -0.212693    0.362960
     36          1           0        3.615101   -1.186759    0.678834
     37          1           0        3.786763    0.491178    1.177329
     38          6           0        5.540753   -0.328714    0.201849
     39          1           0        5.736399   -1.018847   -0.633681
     40          6           0        6.164161   -0.930643    1.469859
     41          1           0        5.731270   -1.911394    1.701237
     42          1           0        7.247790   -1.056462    1.358082
     43          1           0        5.991570   -0.276028    2.334490
     44          6           0        6.197583    1.019490   -0.130440
     45          1           0        5.835373    1.432878   -1.077808
     46          1           0        5.988823    1.754301    0.658702
     47          1           0        7.286224    0.914547   -0.209598
 ---------------------------------------------------------------------

 The electronic state is 1-A.
 Alpha  occ. eigenvalues --  -10.19235 -10.19194 -10.19080 -10.19056 -10.18948
 Alpha  occ. eigenvalues --  -10.18890 -10.18688 -10.18423 -10.18383 -10.18352
 Alpha  occ. eigenvalues --  -10.18335 -10.18222 -10.18115 -10.18047 -10.18007
 Alpha  occ. eigenvalues --  -10.17879 -10.17777 -10.17637 -10.17631 -10.16838
 Alpha  occ. eigenvalues --  -10.16820  -0.87708  -0.83807  -0.81715  -0.80828
 Alpha  occ. eigenvalues --   -0.78612  -0.75534  -0.74671  -0.73566  -0.70220
 Alpha  occ. eigenvalues --   -0.69862  -0.67671  -0.63624  -0.62826  -0.61500
 Alpha  occ. eigenvalues --   -0.60075  -0.59502  -0.55349  -0.54679  -0.54220
 Alpha  occ. eigenvalues --   -0.50456  -0.49089  -0.48104  -0.46440  -0.45794
 Alpha  occ. eigenvalues --   -0.45548  -0.44050  -0.43229  -0.42647  -0.41993
 Alpha  occ. eigenvalues --   -0.41595  -0.40526  -0.39939  -0.39409  -0.38757
 Alpha  occ. eigenvalues --   -0.38527  -0.38250  -0.37906  -0.37631  -0.36697
 Alpha  occ. eigenvalues --   -0.35936  -0.35508  -0.34775  -0.34410  -0.33843
 Alpha  occ. eigenvalues --   -0.32725  -0.32484  -0.32038  -0.31511  -0.31292
 Alpha  occ. eigenvalues --   -0.29881  -0.29597  -0.29137  -0.26394  -0.23061
 Alpha  occ. eigenvalues --   -0.20195
 Alpha virt. eigenvalues --   -0.03081  -0.00696   0.03235   0.08549   0.09128
 Alpha virt. eigenvalues --    0.10077   0.11063   0.11527   0.12151   0.12462
 Alpha virt. eigenvalues --    0.12636   0.13386   0.14465   0.14855   0.15334

 Mulliken charges:
               1
     1  C    0.180713
     2  C   -0.300227
     3  C    0.146892
     4  C    0.012437
     5  C    0.120889
     6  C   -0.284071
     7  H    0.132944
     8  H    0.128190
     9  C    0.045750
    10  C   -0.218156
    11  C    0.087078
    12  C   -0.202324
    13  C   -0.351702
    14  C   -0.156307
    15  C   -0.273784
    16  C   -0.344038
    17  H    0.150170
    18  C   -0.270142
    19  C   -0.271709
    20  H    0.156397
    21  H    0.151397
    22  H    0.137473
    23  H    0.138589
    24  H    0.142507
    25  H    0.135381
    26  H    0.134592
    27  H    0.137048
    28  H    0.138908
    29  H    0.155252
    30  H    0.139790
    31  H    0.133559
    32  C   -0.357799
    33  H    0.144038
    34  H    0.149714
    35  C   -0.247460
    36  H    0.134516
    37  H    0.130194
    38  C   -0.062513
    39  H    0.123257
    40  C   -0.449904
    41  H    0.141935
    42  H    0.141763
    43  H    0.140620
    44  C   -0.453171
    45  H    0.148498
    46  H    0.140469
    47  H    0.142344
 Sum of Mulliken charges =  -0.00000

 Dipole moment (field-independent basis, Debye):
    X=             -0.4779    Y=             -0.8537    Z=             -0.0047  Tot=              0.9783
 Quadrupole moment (field-independent basis, Debye-Ang):
   XX=           -114.7649   YY=           -119.7803   ZZ=           -129.7624
   XY=              0.6369   XZ=             -2.1923   YZ=              2.1100

 Normal termination of Gaussian 16 at Wed Nov  8 22:29:35 2023.
